ITEM: TIMESTEP
0
ITEM: NUMBER OF ATOMS
27
ITEM: BOX BOUNDS pp pp pp
-30 30
-30 30
-30 30
ITEM: ATOMS id type xs ys zs
1 2 0.694608 0.616709 0.401929
2 1 0.699455 0.607117 0.414675
3 2 0.715973 0.606441 0.41351
4 1 0.721506 0.597359 0.426534
5 2 0.738028 0.597129 0.422973
6 1 0.746166 0.58829 0.434686
7 3 0.762283 0.5903 0.430075
8 3 0.765425 0.603039 0.439961
9 1 0.750303 0.60304 0.446863
10 2 0.742013 0.61417 0.437769
11 1 0.726286 0.609605 0.439891
12 2 0.717153 0.621001 0.431954
13 1 0.702254 0.613714 0.432065
14 2 0.691528 0.624714 0.426013
15 3 0.677641 0.615825 0.425852
16 3 0.679334 0.605301 0.43878
17 3 0.686753 0.591287 0.43302
18 1 0.702485 0.595047 0.428231
19 1 0.710245 0.60025 0.441697
20 2 0.709061 0.587805 0.452374
21 2 0.715839 0.575337 0.444119
22 1 0.72825 0.583068 0.436534
23 1 0.733174 0.594101 0.447556
24 2 0.735774 0.585386 0.461415
25 2 0.747172 0.57488 0.456451
26 1 0.757991 0.5856 0.450312
27 2 0.763585 0.594051 0.463691
